LAMMPS data file via write_data, version 29 Sep 2021, timestep = 4000

6869 atoms
6 atom types
4018 bonds
1 bond types
2009 angles
1 angle types

-14.4596 14.4596 xlo xhi
-14.4596 14.4596 ylo yhi
-43 43 zlo zhi

Masses

1 15.999
2 1.008
3 35.453
4 39.098
5 63.546
6 63.546

Bond Coeffs # harmonic

1 1e+06 1

Angle Coeffs # harmonic

1 1e+06 109.47

Atoms # full

1 0 5 0 -14.4596 -14.4596 -40.18572777659628 0 0 0
2 0 5 0 -12.65215 -12.65215 -40.18572777659628 0 0 0
3 0 5 0 -12.65215 -14.4596 -38.37827777659554 0 0 0
4 0 5 0 -14.4596 -12.65215 -38.37827777659554 0 0 0
5 0 5 0 -10.8447 -14.4596 -40.18572777659628 0 0 0
6 0 5 0 -9.03725 -12.65215 -40.18572777659628 0 0 0
7 0 5 0 -9.03725 -14.4596 -38.37827777659554 0 0 0
8 0 5 0 -10.8447 -12.65215 -38.37827777659554 0 0 0
9 0 5 0 -7.2298 -14.4596 -40.18572777659628 0 0 0
12 0 5 0 -7.2298 -12.65215 -38.37827777659554 0 0 0
17 0 5 0 -14.4596 -10.8447 -40.18572777659628 0 0 0
18 0 5 0 -12.65215 -9.03725 -40.18572777659628 0 0 0
19 0 5 0 -12.65215 -10.8447 -38.37827777659554 0 0 0
20 0 5 0 -14.4596 -9.03725 -38.37827777659554 0 0 0
21 0 5 0 -10.8447 -10.8447 -40.18572777659628 0 0 0
22 0 5 0 -9.03725 -9.03725 -40.18572777659628 0 0 0
23 0 5 0 -9.03725 -10.8447 -38.37827777659554 0 0 0
24 0 5 0 -10.8447 -9.03725 -38.37827777659554 0 0 0
25 0 5 0 -7.2298 -10.8447 -40.18572777659628 0 0 0
28 0 5 0 -7.2298 -9.03725 -38.37827777659554 0 0 0
33 0 5 0 -14.4596 -7.2298 -40.18572777659628 0 0 0
35 0 5 0 -12.65215 -7.2298 -38.37827777659554 0 0 0
37 0 5 0 -10.8447 -7.2298 -40.18572777659628 0 0 0
39 0 5 0 -9.03725 -7.2298 -38.37827777659554 0 0 0
41 0 5 0 -7.2298 -7.2298 -40.18572777659628 0 0 0
10 0 5 0 -5.42235 -12.65215 -40.18572777659628 0 0 0
11 0 5 0 -5.42235 -14.4596 -38.37827777659554 0 0 0
13 0 5 0 -3.6149 -14.4596 -40.18572777659628 0 0 0
14 0 5 0 -1.80745 -12.65215 -40.18572777659628 0 0 0
15 0 5 0 -1.80745 -14.4596 -38.37827777659554 0 0 0
16 0 5 0 -3.6149 -12.65215 -38.37827777659554 0 0 0
26 0 5 0 -5.42235 -9.03725 -40.18572777659628 0 0 0
27 0 5 0 -5.42235 -10.8447 -38.37827777659554 0 0 0
29 0 5 0 -3.6149 -10.8447 -40.18572777659628 0 0 0
30 0 5 0 -1.80745 -9.03725 -40.18572777659628 0 0 0
31 0 5 0 -1.80745 -10.8447 -38.37827777659554 0 0 0
32 0 5 0 -3.6149 -9.03725 -38.37827777659554 0 0 0
43 0 5 0 -5.42235 -7.2298 -38.37827777659554 0 0 0
45 0 5 0 -3.6149 -7.2298 -40.18572777659628 0 0 0
47 0 5 0 -1.80745 -7.2298 -38.37827777659554 0 0 0
34 0 5 0 -12.65215 -5.42235 -40.18572777659628 0 0 0
36 0 5 0 -14.4596 -5.42235 -38.37827777659554 0 0 0
38 0 5 0 -9.03725 -5.42235 -40.18572777659628 0 0 0
40 0 5 0 -10.8447 -5.42235 -38.37827777659554 0 0 0
44 0 5 0 -7.2298 -5.42235 -38.37827777659554 0 0 0
49 0 5 0 -14.4596 -3.6149 -40.18572777659628 0 0 0
50 0 5 0 -12.65215 -1.80745 -40.18572777659628 0 0 0
51 0 5 0 -12.65215 -3.6149 -38.37827777659554 0 0 0
52 0 5 0 -14.4596 -1.80745 -38.37827777659554 0 0 0
53 0 5 0 -10.8447 -3.6149 -40.18572777659628 0 0 0
54 0 5 0 -9.03725 -1.80745 -40.18572777659628 0 0 0
55 0 5 0 -9.03725 -3.6149 -38.37827777659554 0 0 0
56 0 5 0 -10.8447 -1.80745 -38.37827777659554 0 0 0
57 0 5 0 -7.2298 -3.6149 -40.18572777659628 0 0 0
60 0 5 0 -7.2298 -1.80745 -38.37827777659554 0 0 0
42 0 5 0 -5.42235 -5.42235 -40.18572777659628 0 0 0
46 0 5 0 -1.80745 -5.42235 -40.18572777659628 0 0 0
48 0 5 0 -3.6149 -5.42235 -38.37827777659554 0 0 0
58 0 5 0 -5.42235 -1.80745 -40.18572777659628 0 0 0
59 0 5 0 -5.42235 -3.6149 -38.37827777659554 0 0 0
61 0 5 0 -3.6149 -3.6149 -40.18572777659628 0 0 0
62 0 5 0 -1.80745 -1.80745 -40.18572777659628 0 0 0
63 0 5 0 -1.80745 -3.6149 -38.37827777659554 0 0 0
64 0 5 0 -3.6149 -1.80745 -38.37827777659554 0 0 0
65 0 5 -0.04309201 -14.4596 -14.4596 -36.57082777659666 0 0 0
66 0 5 -0.07146025 -12.65215 -12.65215 -36.57082777659666 0 0 0
67 0 5 -0.09143089 -10.8447 -14.4596 -36.57082777659666 0 0 0
68 0 5 -0.10508424 -9.03725 -12.65215 -36.57082777659666 0 0 0
69 0 5 0.00024581 -7.2298 -14.4596 -36.57082777659666 0 0 0
73 0 5 0.08835245 -14.4596 -10.8447 -36.57082777659666 0 0 0
74 0 5 -0.08195137 -12.65215 -9.03725 -36.57082777659666 0 0 0
75 0 5 0.03522279 -10.8447 -10.8447 -36.57082777659666 0 0 0
76 0 5 0.01963213 -9.03725 -9.03725 -36.57082777659666 0 0 0
77 0 5 -0.08672099 -7.2298 -10.8447 -36.57082777659666 0 0 0
81 0 5 -0.11911937 -14.4596 -7.2298 -36.57082777659666 0 0 0
83 0 5 -0.07446068 -10.8447 -7.2298 -36.57082777659666 0 0 0
85 0 5 0.00570176 -7.2298 -7.2298 -36.57082777659666 0 0 0
1654 296 1 -0.8476 -10.46300948972118 -9.171802110511337 -34.12021630885925 -4 0 0
1655 296 2 0.4238 -10.23052510462567 -10.089970430562262 -34.44102463296231 -4 0 0
1656 296 2 0.4238 -10.515733005880456 -9.17104650744848 -33.12160741730289 -4 0 0
2643 625 2 0.4238 -9.506677387090269 -7.875485371516649 -34.50810180228809 0 -11 0
3217 817 1 -0.8476 -9.013076844915018 -10.19856053928496 -31.214426630367353 3 -2 0
3218 817 2 0.4238 -8.091500290895858 -10.336743921916103 -31.577196696637028 3 -2 0
4255 1163 1 -0.8476 -7.301359180649273 -12.58128714946993 -34.30903757720113 6 1 0
4256 1163 2 0.4238 -7.245778484834082 -12.271694084843599 -35.25828094696749 6 1 0
4601 1278 2 0.4238 -13.699307435565938 -12.713778632513169 -33.0556967312335 -2 -4 0
3746 993 2 0.4238 -5.832038266947334 -0.015757461647186312 -33.91606408270391 9 -1 0
5983 1739 1 -0.8476 -10.951999624735059 -12.236089309349863 -34.14828887169273 2 -3 0
5984 1739 2 0.4238 -11.678923370636475 -12.312924475441363 -34.830695127992605 2 -3 0
5985 1739 2 0.4238 -11.329799523308038 -12.406495305232985 -33.238217940226896 2 -3 0
6442 1892 1 -0.8476 -11.993847355610093 -8.00937592444405 -31.430388070705646 6 4 0
6847 0 3 -1 -12.598499815481592 -12.648835900373584 -31.401003192087646 3 -2 0
3747 993 2 0.4238 -5.845793569427116 -1.0801616881617493 -32.67772610770399 9 -1 0
1477 237 1 -0.8476 -2.4654450942370754 -4.394223503721668 -31.147638685274757 -1 0 0
6834 0 4 1 -9.18730760870575 -14.294076171987749 -34.32091814322486 0 0 0
1207 147 1 -0.8476 -2.295472589279495 -4.15781513654506 -33.94791112109234 0 -2 0
3767 1000 2 0.4238 -3.836212380025403 -0.9539806948489564 -34.078007309865065 0 1 0
6444 1892 2 0.4238 -11.074794206909726 -7.85518468240265 -31.067667244134945 6 4 0
6812 0 4 1 -12.809018601347528 -7.63454140026645 -34.3681160025981 1 -3 0
5174 1469 2 0.4238 -3.2644429021603667 -13.22055350538699 -30.882781472142742 -1 -3 0
3354 862 2 0.4238 -4.941945893538169 -4.108884658244817 -31.57467934921822 2 -1 0
2336 523 2 0.4238 -7.704959109926605 -14.077164173552854 -31.068382532923597 -2 6 0
1450 228 1 -0.8476 -7.329987248805828 -0.94512121863474 -31.61076032933006 1 -3 0
4600 1278 1 -0.8476 -14.070921699919525 -12.780353429378621 -33.9816938528695 -2 -4 0
6573 1935 2 0.4238 -4.451943783765479 -5.249967999472906 -33.95872200035879 2 2 0
789 7 2 0.4238 -12.895677668317994 -0.5266468923847224 -34.61773581790752 3 -5 0
4257 1163 2 0.4238 -7.005038472978223 -11.845186107099387 -33.70047425363728 6 1 0
2399 544 2 0.4238 -4.6722884558165365 -11.246168380712714 -30.999897520669652 2 4 0
4045 1093 1 -0.8476 -4.617921683285007 -6.329879374176035 -31.275475510506123 -2 -3 0
6571 1935 1 -0.8476 -4.421808599295344 -6.2460119996489025 -34.04231769493996 2 2 0
4457 1230 2 0.4238 -7.5891789908307326 -7.4970232776049865 -34.01346997187446 3 2 0
2846 693 2 0.4238 -1.4036480633412756 -7.555545526690279 -31.40651554288536 2 -1 0
5278 1504 1 -0.8476 -13.755245775612408 -5.764321403909701 -31.158929015759348 7 -8 0
70 0 5 0.0112656 -5.42235 -12.65215 -36.57082777659666 0 0 0
71 0 5 0.00129316 -3.6149 -14.4596 -36.57082777659666 0 0 0
72 0 5 -0.08300452 -1.80745 -12.65215 -36.57082777659666 0 0 0
78 0 5 -0.01089828 -5.42235 -9.03725 -36.57082777659666 0 0 0
79 0 5 0.04267113 -3.6149 -10.8447 -36.57082777659666 0 0 0
80 0 5 -0.11255744 -1.80745 -9.03725 -36.57082777659666 0 0 0
87 0 5 -0.07545604 -3.6149 -7.2298 -36.57082777659666 0 0 0
3679 971 1 -0.8476 -1.1590779035333378 -9.80673063189983 -33.96056326914225 6 -8 0
3680 971 2 0.4238 -1.1338379995545687 -9.849275593635834 -32.9617875553037 6 -8 0
3681 971 2 0.4238 -2.0857693826642523 -10.00578004807673 -34.27934577774044 6 -8 0
4303 1179 1 -0.8476 -3.3001147266471795 -12.193725439205213 -33.95409760283022 1 1 0
4304 1179 2 0.4238 -4.0829923759902815 -11.630207687421652 -33.69037334903043 1 1 0
4305 1179 2 0.4238 -3.622492230944841 -13.088519900294868 -34.26299189732589 1 1 0
4402 1212 1 -0.8476 -4.0254406642042335 -9.262632796193703 -34.010370427293886 -5 -1 0
4403 1212 2 0.4238 -4.570338383572608 -9.422396619497391 -33.1872288843038 -5 -1 0
4404 1212 2 0.4238 -4.633259116956916 -9.160743770396605 -34.79788256540771 -5 -1 0
4456 1230 1 -0.8476 -6.64060785109388 -7.755599926595092 -33.83084723853206 3 2 0
4458 1230 2 0.4238 -6.619795318433366 -8.6429277783523 -33.37017791445441 3 2 0
5144 1459 2 0.4238 -6.061212382092312 -12.787308368165599 -31.4444711563763 4 3 0
6811 0 3 -1 -6.175358953458751 -10.61901366350595 -32.32905427164979 5 6 0
6820 0 4 1 -0.4057470943293607 -12.39634152827053 -34.34080423510326 0 1 0
6848 0 4 1 -1.8458702180293876 -7.165891872785935 -34.492304002721966 0 -1 0
2845 693 1 -0.8476 -1.0622866983575834 -6.682596230631504 -31.754986447101547 2 -1 0
1451 228 2 0.4238 -8.028364688561215 -0.4220101433546106 -31.122269014471215 1 -3 0
6332 1855 2 0.4238 -1.5531929484250493 -13.327798581938753 -31.83141990411803 5 5 0
1126 120 1 -0.8476 -14.24615040565321 -5.2305730606356775 -33.71234427380368 -4 -9 0
6443 1892 2 0.4238 -12.293800391288473 -8.934134574822755 -31.196188101676086 6 4 0
6333 1855 2 0.4238 -0.809797657177257 -11.979095175782923 -31.288290939169315 5 5 0
6572 1935 2 0.4238 -5.323737879885705 -6.585534602643358 -34.309241023824946 2 2 0
4703 1312 2 0.4238 -13.853724538210981 -10.813301114960316 -33.8260385289983 8 -3 0
1785 339 2 0.4238 -1.1431891903358333 -1.045787970283852 -34.07757176493502 4 4 0
3863 1032 2 0.4238 -10.175682428676883 -0.4126991943633361 -34.098294432109725 8 5 0
787 7 1 -0.8476 -12.074326760055023 -0.33416921137758343 -34.08076714133326 3 -5 0
6331 1855 1 -0.8476 -0.684290703057675 -12.83448036560433 -31.790848586869814 5 5 0
2381 538 2 0.4238 -8.177146171518187 -3.463539373120146 -34.25642463748345 4 -2 0
2641 625 1 -0.8476 -9.187213966835744 -6.970717115272945 -34.226432613064 0 -11 0
4046 1093 2 0.4238 -3.8316354376883512 -5.915375857088796 -30.817282554845498 -2 -3 0
82 0 5 -0.08200557 -12.65215 -5.42235 -36.57082777659666 0 0 0
84 0 5 -0.01828219 -9.03725 -5.42235 -36.57082777659666 0 0 0
89 0 5 -0.02192307 -14.4596 -3.6149 -36.57082777659666 0 0 0
90 0 5 -0.0242377 -12.65215 -1.80745 -36.57082777659666 0 0 0
91 0 5 0.01447555 -10.8447 -3.6149 -36.57082777659666 0 0 0
92 0 5 0.02680544 -9.03725 -1.80745 -36.57082777659666 0 0 0
93 0 5 -0.00305499 -7.2298 -3.6149 -36.57082777659666 0 0 0
1564 266 1 -0.8476 -11.117167390345465 -3.013341344426601 -33.71565979139701 2 5 0
1565 266 2 0.4238 -10.159235594773797 -2.8593375944232653 -33.47348285828837 2 5 0
1566 266 2 0.4238 -11.529157901742767 -2.151206140332157 -34.01059512964604 2 5 0
2380 538 1 -0.8476 -8.497537396876044 -2.5679620928090134 -33.94773255980259 4 -2 0
2642 625 2 0.4238 -9.971223087376867 -6.359861903758078 -34.11604400049954 0 -11 0
2974 736 1 -0.8476 -8.076479595092778 -5.1443989275973285 -31.182875793507613 -2 -3 0
3864 1032 2 0.4238 -8.543575377863124 -0.4659643024876772 -34.10228234980076 8 5 0
4066 1100 1 -0.8476 -11.334266968945283 -5.646342686410456 -33.58943290619303 1 1 0
4067 1100 2 0.4238 -11.197927381090885 -4.714194133011155 -33.92485893312069 1 1 0
4068 1100 2 0.4238 -11.695194687108897 -5.6157219658963475 -32.657341945578345 1 1 0
1128 120 2 0.4238 -14.217910315435333 -5.159331603391668 -32.71528502000478 -4 -9 0
5545 1593 1 -0.8476 -7.472715247102782 -4.897561526390215 -34.18658768713929 7 2 0
5546 1593 2 0.4238 -7.899653544995227 -5.637365789125713 -34.706600626386056 7 2 0
5547 1593 2 0.4238 -7.474208370254816 -5.12983808133933 -33.21393899918759 7 2 0
5854 1696 1 -0.8476 -13.679269988459389 -1.4983909974632426 -31.53169789190635 -7 -5 0
5143 1459 1 -0.8476 -5.896269852564923 -13.689189578294048 -31.045216482747048 4 3 0
5856 1696 2 0.4238 -12.911826143096683 -2.019195835558216 -31.15780979710127 -7 -5 0
3219 817 2 0.4238 -9.334438773298226 -11.044891857439902 -30.789632752750205 3 -2 0
2976 736 2 0.4238 -8.373658253256036 -6.063868137619964 -30.925462972402038 -2 -3 0
5855 1696 2 0.4238 -13.982492112936342 -0.8227746566025985 -30.859686776095867 -7 -5 0
4298 1177 2 0.4238 -13.88318399500354 -2.1236768006983215 -33.282298705681605 2 -1 0
96 0 5 0.00251335 -1.80745 -1.80745 -36.57082777659666 0 0 0
95 0 5 0.01881673 -3.6149 -3.6149 -36.57082777659666 0 0 0
1478 237 2 0.4238 -1.9840430616862381 -5.168667186126331 -31.558112969069203 -1 0 0
916 50 1 -0.8476 -2.171238349359613 -0.7461779863118069 -31.436757903115573 3 2 0
94 0 5 0.00881863 -5.42235 -1.80745 -36.57082777659666 0 0 0
4297 1177 1 -0.8476 -14.349079976150785 -2.622053592701735 -34.0134358948669 2 -1 0
86 0 5 0.02550659 -5.42235 -5.42235 -36.57082777659666 0 0 0
1246 160 1 -0.8476 -4.6089446921105806 -14.426350825380773 -33.60360114200643 -1 0 0
1127 120 2 0.4238 -14.256469961664443 -4.3138987597255465 -34.111846138631115 -4 -9 0
1452 228 2 0.4238 -6.863234372795066 -1.556181490795847 -30.971426881778083 1 -3 0
88 0 5 -0.08626061 -1.80745 -5.42235 -36.57082777659666 0 0 0
1941 391 2 0.4238 -6.012257445382131 -4.030609237740206 -34.29531488379467 2 1 0
3149 794 2 0.4238 -0.7592296816907103 -4.844724663484658 -34.235629173994866 7 -3 0
3768 1000 2 0.4238 -2.5440364388772103 -0.78086477676292 -33.09467681838439 0 1 0
1209 147 2 0.4238 -2.944079703233006 -3.727496471650548 -34.57571260965432 0 -2 0
3766 1000 1 -0.8476 -2.8414339976545278 -0.856941364216415 -34.046394805199206 0 1 0
1939 391 1 -0.8476 -5.104657766171581 -3.6289961919551494 -34.172963604140996 2 1 0
3745 993 1 -0.8476 -5.436210081715928 -0.8639141349976864 -33.56399828104865 9 -1 0
2382 538 2 0.4238 -7.936870725509716 -2.2601709535864307 -33.17902096951355 4 -2 0
4047 1093 2 0.4238 -4.391740565401346 -6.503553607781615 -32.23395321751196 -2 -3 0
1940 391 2 0.4238 -5.194155376935453 -2.6464070194406073 -34.01014853798011 2 1 0
1208 147 2 0.4238 -2.679337528549728 -4.163852570678979 -33.02454156905471 0 -2 0
5279 1504 2 0.4238 -13.213410547875602 -6.5973991166852235 -31.047591154526977 7 -8 0
3352 862 1 -0.8476 -5.720075767309807 -3.551425005579433 -31.28527883327749 2 -1 0
918 50 2 0.4238 -2.8988292830034244 -1.061612210445687 -30.827567641173573 3 2 0
2847 693 2 0.4238 -0.15687502849516974 -6.501542738321386 -31.370995077114074 2 -1 0
4702 1312 1 -0.8476 -13.886588510628739 -9.818729747426227 -33.72730774502731 8 -3 0
5173 1469 1 -0.8476 -2.9625632022919017 -14.050788425055945 -31.35137366045467 -1 -3 0
1247 160 2 0.4238 -4.33626758654388 -13.923282634740342 -32.783497706101635 -1 0 0
917 50 2 0.4238 -1.4272794365024477 -1.4143876902289265 -31.441340672982765 3 2 0
1783 339 1 -0.8476 -0.1787688957086076 -1.3080589653838635 -34.04429327994809 4 4 0
4602 1278 2 0.4238 -14.007593837827208 -13.726549145907331 -34.299031723472574 -2 -4 0
6865 0 3 -1 -1.3731200819304528 -10.130227356671295 -30.979857756614926 5 5 0
3353 862 2 0.4238 -6.5319295669957205 -4.12945747210544 -31.202986981754073 2 -1 0
3503 912 2 0.4238 -9.228746492342534 -8.492552080860396 -30.791906185530163 1 1 0
1237 157 1 -0.8476 -10.49416892986225 -12.784998097695906 -24.80754183391027 4 -4 0
1238 157 2 0.4238 -10.470974205450887 -13.44568416071248 -25.55784573401776 4 -4 0
1537 257 1 -0.8476 -8.809620538262537 -10.660077007806086 -28.005163176085137 6 -4 0
1538 257 2 0.4238 -7.975930358361026 -10.23706340912057 -28.360156666194552 6 -4 0
1539 257 2 0.4238 -9.204432349919815 -11.256441827758742 -28.70407145032526 6 -4 0
1523 252 2 0.4238 -0.595295309017659 -9.208416409047526 -25.600261555270258 5 -7 0
3504 912 2 0.4238 -9.297539390075409 -7.389240625413369 -29.589991914722365 1 1 0
3742 992 1 -0.8476 -9.693756888379724 -8.949185541486568 -26.243814846033693 -1 -1 0
3743 992 2 0.4238 -8.796268758448704 -8.581281550418737 -26.000582982901236 -1 -1 0
3744 992 2 0.4238 -9.598046474163215 -9.579067094030858 -27.01458646032664 -1 -1 0
4122 1118 2 0.4238 -13.38060265529381 -10.079462210600774 -28.973963356600127 4 -3 0
4918 1384 1 -0.8476 -12.135709354212326 -14.28947102735611 -28.7410956785826 3 -7 0
4582 1272 1 -0.8476 -13.145755286050452 -10.418158229302033 -27.1578362635449 3 9 0
4583 1272 2 0.4238 -12.530488565146296 -10.584659648336348 -26.38730118015538 3 9 0
4584 1272 2 0.4238 -13.687126741919744 -11.239913784348598 -27.335698121713577 3 9 0
5870 1701 2 0.4238 -13.21252166038712 -8.63941566647104 -26.66079775765543 4 3 0
4920 1384 2 0.4238 -12.220552041952246 -13.464924691712561 -29.30049278403227 3 -7 0
1165 133 1 -0.8476 -7.038673159809175 -8.457458525911669 -26.0281100988182 -1 0 0
1524 252 2 0.4238 -1.8169461657606794 -9.544805471485228 -26.630328759521277 5 -7 0
1167 133 2 0.4238 -6.896016851010915 -8.109258021776014 -25.101608283999735 -1 0 0
2967 733 2 0.4238 -0.4128929781551903 -1.0767716011330914 -23.60602124205738 -1 4 0
5115 1449 2 0.4238 -10.922168271627292 -10.983822178986648 -24.542586046241855 -3 -2 0
5113 1449 1 -0.8476 -11.412200362446145 -10.138394998426083 -24.75500419124698 -3 -2 0
5114 1449 2 0.4238 -10.852140617822112 -9.571243609278678 -25.358885323606675 -3 -2 0
6826 0 4 1 -7.811227549529324 -11.48613904305119 -25.605955546781665 2 0 0
4177 1137 1 -0.8476 -0.6237167773339652 -13.6075137232141 -28.89922550544243 4 -4 0
4367 1200 2 0.4238 -13.983978296480927 -6.577351280389968 -18.570317131930736 4 2 0
4248 1160 2 0.4238 -1.2717084444541595 -13.880591632566976 -26.253366789658948 -3 -6 0
5052 1428 2 0.4238 -6.3522869478097554 -6.351820790003038 -18.603267752997223 9 0 0
6241 1825 1 -0.8476 -13.469895320494437 -0.030519218623069062 -21.26792351065703 4 1 0
5150 1461 2 0.4238 -0.09414681875707342 -13.964822381964451 -21.467482477841152 0 -1 0
5399 1544 2 0.4238 -11.038047738743161 -12.133057422603885 -30.346513726362176 0 2 0
1830 354 2 0.4238 -8.616372187086489 -1.3164343945965955 -18.972842755733677 8 7 0
1360 198 1 -0.8476 -0.26751477019417935 -8.362515229740685 -20.175403921875397 -1 -8 0
1522 252 1 -0.8476 -1.087446674455374 -9.93998526369348 -26.072060360138593 5 -7 0
3128 787 2 0.4238 -6.206290369073121 -9.65542728681483 -30.23795773858958 2 0 0
4509 1247 2 0.4238 -6.358861255529816 -13.516610212146901 -27.262832575372762 3 5 0
4507 1247 1 -0.8476 -7.188894223423846 -13.794520907259484 -26.779292538128736 3 5 0
1166 133 2 0.4238 -6.174988286983089 -8.42947666609468 -26.53136502633475 -1 0 0
1777 337 1 -0.8476 -5.386842343779286 -11.471152245072272 -27.916542396772133 4 -2 0
1778 337 2 0.4238 -5.730664847470719 -10.765811314300024 -28.536445884899464 4 -2 0
1779 337 2 0.4238 -4.474922770065658 -11.757518108339957 -28.210476598462254 4 -2 0
3127 787 1 -0.8476 -6.512041153500227 -9.585428041115737 -29.288422799355843 2 0 0
5926 1720 1 -0.8476 -6.563689307169431 -0.212620155427948 -22.21668392672216 0 2 0
3129 787 2 0.4238 -6.869404337034084 -8.666738878092755 -29.120191388710126 2 0 0
3683 972 2 0.4238 -3.9536752442414826 -7.6884181106836404 -26.969058558229197 3 0 0
4092 1108 2 0.4238 -1.913447253072722 -10.322583596467643 -24.45869851624798 2 -6 0
5276 1503 2 0.4238 -2.4846024820947474 -4.249540115284126 -23.52244551991243 6 -5 0
4534 1256 1 -0.8476 -2.5419155997685032 -8.797016534302768 -28.006315704585536 -4 3 0
4535 1256 2 0.4238 -2.5358135105753403 -7.832866094479847 -28.27160183220671 -4 3 0
4536 1256 2 0.4238 -2.5466337135756705 -9.368484526221321 -28.826926511384798 -4 3 0
5524 1586 1 -0.8476 -5.064524321984785 -11.498700170811217 -25.008483507027105 2 3 0
5525 1586 2 0.4238 -4.334216119542867 -11.017338414168664 -24.523776585809756 2 3 0
5526 1586 2 0.4238 -4.9658794979218985 -11.350010093651749 -25.99243499363985 2 3 0
6343 1859 1 -0.8476 -2.3791419153514517 -12.277774656851573 -27.13775779409158 -1 -4 0
6344 1859 2 0.4238 -1.6443228135880892 -12.445955501275147 -27.794839384154734 -1 -4 0
6345 1859 2 0.4238 -2.0601563117686736 -11.639515751555026 -26.437133905146254 -1 -4 0
2648 627 2 0.4238 -5.890407556279325 -6.948703245557997 -28.656353617790458 -1 3 0
3682 972 1 -0.8476 -4.808821772991832 -7.1809072010210775 -27.074685753693004 3 0 0
3684 972 2 0.4238 -4.65221442634075 -6.216203389351117 -26.86297672981889 3 0 0
1125 119 2 0.4238 -13.03343316631644 -0.01759827249059884 -24.90501007077525 -3 -2 0
2638 624 1 -0.8476 -13.868758596419212 -0.9329818432044756 -23.812598228041246 -4 2 0
6821 0 3 -1 -9.431384421467586 -0.12501960195824727 -29.43695119885176 6 1 0
2080 438 1 -0.8476 -3.4815331907684284 -0.6885705165012327 -19.641036015049387 1 -4 0
5400 1544 2 0.4238 -9.662141001097613 -12.975356377932387 -30.093452613201418 0 2 0
3194 809 2 0.4238 -1.4529776522332043 -0.1781834930410408 -27.118896679972067 7 1 0
2249 494 2 0.4238 -11.44012122308894 -0.5160514204734068 -19.039123542396272 -5 5 0
6242 1825 2 0.4238 -13.818284773419244 -0.7561817929892221 -20.67459503137141 4 1 0
5183 1472 2 0.4238 -3.225255944824453 -13.904807135649998 -27.2587154397642 1 -1 0
4084 1106 1 -0.8476 -9.481189447377089 -3.190695015475165 -30.03735961497971 -1 0 0
5869 1701 1 -0.8476 -13.355928128275185 -7.726138549371339 -26.279537210456915 4 3 0
2112 448 2 0.4238 -10.819574000916594 -2.6645544239572563 -26.757494531503266 4 3 0
4121 1118 2 0.4238 -13.42372032512309 -10.920424481302156 -30.373088057451046 4 -3 0
1563 265 2 0.4238 -0.7017343657102103 -2.6945143502067763 -26.71258106092822 1 -4 0
3735 989 2 0.4238 -11.79382179015396 -4.999372893106209 -27.346842747321116 -1 -2 0
3733 989 1 -0.8476 -11.928143959044112 -4.025531256935104 -27.163566780638334 -1 -2 0
1175 136 2 0.4238 -7.940796514691177 -4.277396786034515 -25.86208123839228 2 1 0
1801 345 1 -0.8476 -12.261558689137612 -3.527744717851552 -30.065678534089205 6 4 0
1803 345 2 0.4238 -11.92961383349916 -3.662334171484868 -29.13203067069443 6 4 0
2110 448 1 -0.8476 -10.036876154034578 -2.0753867892569504 -26.556831549757675 4 3 0
3973 1069 1 -0.8476 -10.653049210582253 -6.5849377958402995 -26.866124367789673 10 -1 0
3974 1069 2 0.4238 -10.29481997734256 -7.485058507464341 -26.618223949673258 10 -1 0
3975 1069 2 0.4238 -9.895350123800622 -5.939320396159629 -26.961362942539502 10 -1 0
5343 1525 2 0.4238 -9.7457992646387 -1.4229953761708283 -24.7667563072661 1 -1 0
5419 1551 1 -0.8476 -13.180207004584462 -3.485119697013194 -24.510426645220843 8 7 0
5420 1551 2 0.4238 -13.287670681843144 -2.4967201123784406 -24.403104788628593 8 7 0
5871 1701 2 0.4238 -12.474842172856727 -7.263155230578424 -26.18292459479271 4 3 0
1174 136 1 -0.8476 -8.435051264489672 -3.6467375908600568 -25.26376590682391 2 1 0
1176 136 2 0.4238 -9.002333375055143 -3.0373190048613603 -25.817661239975823 2 1 0
2111 448 2 0.4238 -9.602056801809722 -1.7957567010412794 -27.41283341975945 4 3 0
3734 989 2 0.4238 -12.693107460033003 -3.907953546323324 -26.530316164420448 -1 -2 0
1313 182 2 0.4238 -14.103080776928486 -7.127035851337969 -24.29930510292401 4 -1 0
1569 267 2 0.4238 -9.067339724444619 -4.92003368965324 -24.218634919336896 9 -1 0
4085 1106 2 0.4238 -9.263087225035443 -2.215759931268448 -29.99339300449948 -1 0 0
4086 1106 2 0.4238 -10.375583635905638 -3.3130920486159052 -30.467566605657325 -1 0 0
2966 733 2 0.4238 -1.4337062139931365 -1.5444091491037673 -24.791720259233298 -1 4 0
1312 182 1 -0.8476 -14.005810804224689 -7.028201932199769 -23.30896648124882 4 -1 0
4120 1118 1 -0.8476 -13.624212121902822 -10.04016204992095 -29.94304022451933 4 -3 0
1781 338 2 0.4238 -5.73203397008012 -4.999789231443435 -21.778461289301234 0 -7 0
3859 1031 1 -0.8476 -8.396724374323384 -13.822694699771832 -21.39422466633121 3 -3 0
2398 544 1 -0.8476 -3.9177431290001645 -11.522347709659053 -30.404593824430055 2 4 0
2685 639 2 0.4238 -7.599716207319374 -5.629912655159033 -28.380794407548336 4 -4 0
2647 627 1 -0.8476 -6.530810410703286 -6.861441583251497 -29.419419543627242 -1 3 0
2683 639 1 -0.8476 -8.328098328791375 -5.105308489380221 -27.94005636802501 4 -4 0
2684 639 2 0.4238 -8.690024594533378 -4.431365422016138 -28.584113944090088 4 -4 0
1561 265 1 -0.8476 -1.5709455062846993 -2.314465690734217 -26.39629789996117 1 -4 0
1630 288 1 -0.8476 -4.3160688578689745 -1.396243298291927 -30.002358623406508 -6 1 0
1632 288 2 0.4238 -4.697027874274934 -1.396098759265658 -29.07776667733391 -6 1 0
2221 485 1 -0.8476 -4.306344851089311 -3.7393599317443025 -26.918168303476786 5 -3 0
2222 485 2 0.4238 -4.998212818426555 -3.018895642415156 -26.965601977683676 5 -3 0
2223 485 2 0.4238 -4.106926199254837 -3.9474493808561113 -25.960603147369582 5 -3 0
2649 627 2 0.4238 -6.021731886720587 -6.701934063273043 -30.265230680013662 -1 3 0
3409 881 1 -0.8476 -6.342520480849633 -1.177230237013088 -27.37493494777821 0 2 0
3410 881 2 0.4238 -7.162724327950991 -0.6919074349465806 -27.677800350205402 0 2 0
3411 881 2 0.4238 -6.023336856280969 -0.7859462739012648 -26.511790293186596 0 2 0
5476 1570 1 -0.8476 -2.8538544836837745 -5.335734111972245 -28.572746218155764 10 -2 0
5477 1570 2 0.4238 -2.070304051787404 -5.696413986664064 -28.066822475049836 10 -2 0
5478 1570 2 0.4238 -3.310308567416914 -4.634691948497757 -28.024850612314903 10 -2 0
2081 438 2 0.4238 -3.6931530715895193 -1.6633427940849121 -19.57007075867673 1 -4 0
5512 1582 1 -0.8476 -5.593849189118601 -2.994115263613826 -18.595762307956118 4 1 0
1562 265 2 0.4238 -2.317133690090968 -2.9269739755507107 -26.657136558631624 1 -4 0
5275 1503 1 -0.8476 -1.9110229547320285 -3.684037042012423 -22.929813332031543 6 -5 0
5398 1544 1 -0.8476 -10.15912669600322 -12.136977752565949 -29.869562373765575 0 2 0
5514 1582 2 0.4238 -5.952387281133471 -3.9173451279654565 -18.733954480269176 4 1 0
3502 912 1 -0.8476 -9.522269769329224 -7.568286357471214 -30.54782222780402 1 1 0
1239 157 2 0.4238 -11.178579848767592 -13.067732464525758 -24.135497912612863 4 -4 0
4246 1160 1 -0.8476 -0.3898519507485509 -14.074558032660192 -25.823592201801294 -3 -6 0
4350 1194 2 0.4238 -12.555244436174963 -13.434730381561346 -22.078132802268883 4 -2 0
4349 1194 2 0.4238 -13.043344796737202 -12.28613736501317 -23.13127983417499 4 -2 0
4316 1183 2 0.4238 -13.576749970649384 -14.014645825250145 -19.60106015152746 3 -6 0
6552 1928 2 0.4238 -13.040353850159283 -10.381649403410417 -20.51787778028191 6 2 0
2965 733 1 -0.8476 -1.3227998235909713 -0.9446796528184859 -23.99924036369574 -1 4 0
1198 144 1 -0.8476 -13.799307498665344 -10.770069798822286 -23.629452045391016 2 -7 0
1200 144 2 0.4238 -12.96361184568044 -10.528024392730288 -24.122429540946822 2 -7 0
1708 314 1 -0.8476 -9.043755680677187 -8.399633387884377 -20.279753538585595 0 2 0
1709 314 2 0.4238 -9.960045491178567 -7.999239411726358 -20.289637092596223 0 2 0
1710 314 2 0.4238 -9.1032413851294 -9.373624859436484 -20.498390515613057 0 2 0
4315 1183 1 -0.8476 -12.911159417053206 -13.691596825691391 -20.27383693906203 3 -6 0
4348 1194 1 -0.8476 -12.351700162198792 -12.984629019953418 -22.947603040081674 4 -2 0
6550 1928 1 -0.8476 -13.556210696793064 -9.679082977109818 -21.008073798620813 6 2 0
5335 1523 1 -0.8476 -8.821571163594045 -11.17834102411439 -20.60495775971309 4 -2 0
5336 1523 2 0.4238 -8.49259993152145 -12.110309749532304 -20.757313510647947 4 -2 0
5337 1523 2 0.4238 -8.3487957541908 -10.782516104311997 -19.817680070909752 4 -2 0
5551 1595 1 -0.8476 -11.610141713875464 -11.39517701103865 -19.900796817217568 6 1 0
5552 1595 2 0.4238 -10.739280333631138 -11.300933474271424 -20.383206087703037 6 1 0
5553 1595 2 0.4238 -12.037232719103923 -12.264185769993269 -20.150630902648274 6 1 0
6551 1928 2 0.4238 -13.445773732675578 -9.810900584906031 -21.9931767387704 6 2 0
1802 345 2 0.4238 -12.918290650097456 -4.246839184397867 -30.292848782836668 6 4 0
783 5 2 0.4238 -3.049091230556439 -6.841100815311357 -19.03181066332885 4 -1 0
2691 641 2 0.4238 -7.3525347686207665 -7.975644645784811 -19.89051282457806 4 3 0
1991 408 2 0.4238 -7.67178104978997 -9.214078776232999 -23.027407888161278 6 -3 0
2305 513 1 -0.8476 -3.8090733235378362 -4.071654149638316 -20.542762774068223 -5 -1 0
4755 1329 2 0.4238 -13.573403317447655 -4.172306605948083 -21.592123918627042 14 -4 0
4368 1200 2 0.4238 -12.86915957120623 -7.453905979866603 -19.379920577122398 4 2 0
2640 624 2 0.4238 -13.58742865104876 -0.5210496889206933 -22.945900226137137 -4 2 0
3285 839 2 0.4238 -0.613216493789455 -2.2282073571423635 -20.400881020042423 7 -6 0
2959 731 1 -0.8476 -11.746280601400077 -7.5066776651159675 -20.714415101529195 11 3 0
2961 731 2 0.4238 -12.442789928452934 -8.202268791239149 -20.890562181046334 11 3 0
1631 288 2 0.4238 -4.823288854790069 -2.0431802682351785 -30.57174470101598 -6 1 0
4063 1099 1 -0.8476 -0.6943981005237732 -12.145521147300936 -20.662409732077244 0 0 0
1671 301 2 0.4238 -2.545403414406409 -0.4856475786649319 -22.936577293345483 9 2 0
4090 1108 1 -0.8476 -2.7114062641578647 -10.404416766399748 -23.861568082378138 2 -6 0
4091 1108 2 0.4238 -2.5511285410126887 -9.890593325836349 -23.018777158242962 2 -6 0
3284 839 2 0.4238 -1.223749753676859 -3.6956607623185675 -20.77565588495549 7 -6 0
1990 408 1 -0.8476 -7.938793231498116 -10.156405818641595 -23.22921044629535 6 -3 0
2100 444 2 0.4238 -5.434444253881085 -13.28721880580939 -20.464850993415503 1 1 0
5539 1591 1 -0.8476 -4.614298374282075 -14.07062676243529 -24.446220771464457 0 -2 0
5540 1591 2 0.4238 -5.0209193552769715 -13.18860926176793 -24.68434819955835 0 -2 0
5541 1591 2 0.4238 -4.081444065579511 -13.975851197121454 -23.60533793183793 0 -2 0
2098 444 1 -0.8476 -5.756130762301203 -12.430794557033764 -20.868652210707197 1 1 0
1992 408 2 0.4238 -8.380627056188818 -10.556838881439667 -22.426442511075457 6 -3 0
5868 1700 2 0.4238 -3.084649221299034 -8.199095025976646 -21.420520150104025 1 -7 0
1354 196 1 -0.8476 -4.928130961817974 -10.116064777221466 -20.114280578011797 1 -3 0
1355 196 2 0.4238 -3.9484086597716828 -10.18876420381998 -19.927574908900905 1 -3 0